LAMMPS DATA FILE 

101 atoms 
100 bonds 

1 atom types 
1 bond types 

-1.000000 101.000000 xlo xhi 
-21.000000 21.000000 ylo yhi 
-1.000000 1.000000 zlo zhi 

Atoms 

1 1 1 1.0 1.0 0.000000 0 0 
2 1 1 1.0 1.0 1.000000 0 0 
3 1 1 1.0 1.0 2.000000 0 0 
4 1 1 1.0 1.0 3.000000 0 0 
5 1 1 1.0 1.0 4.000000 0 0 
6 1 1 1.0 1.0 5.000000 0 0 
7 1 1 1.0 1.0 6.000000 0 0 
8 1 1 1.0 1.0 7.000000 0 0 
9 1 1 1.0 1.0 8.000000 0 0 
10 1 1 1.0 1.0 9.000000 0 0 
11 1 1 1.0 1.0 10.000000 0 0 
12 1 1 1.0 1.0 11.000000 0 0 
13 1 1 1.0 1.0 12.000000 0 0 
14 1 1 1.0 1.0 13.000000 0 0 
15 1 1 1.0 1.0 14.000000 0 0 
16 1 1 1.0 1.0 15.000000 0 0 
17 1 1 1.0 1.0 16.000000 0 0 
18 1 1 1.0 1.0 17.000000 0 0 
19 1 1 1.0 1.0 18.000000 0 0 
20 1 1 1.0 1.0 19.000000 0 0 
21 1 1 1.0 1.0 20.000000 0 0 
22 1 1 1.0 1.0 21.000000 0 0 
23 1 1 1.0 1.0 22.000000 0 0 
24 1 1 1.0 1.0 23.000000 0 0 
25 1 1 1.0 1.0 24.000000 0 0 
26 1 1 1.0 1.0 25.000000 0 0 
27 1 1 1.0 1.0 26.000000 0 0 
28 1 1 1.0 1.0 27.000000 0 0 
29 1 1 1.0 1.0 28.000000 0 0 
30 1 1 1.0 1.0 29.000000 0 0 
31 1 1 1.0 1.0 30.000000 0 0 
32 1 1 1.0 1.0 31.000000 0 0 
33 1 1 1.0 1.0 32.000000 0 0 
34 1 1 1.0 1.0 33.000000 0 0 
35 1 1 1.0 1.0 34.000000 0 0 
36 1 1 1.0 1.0 35.000000 0 0 
37 1 1 1.0 1.0 36.000000 0 0 
38 1 1 1.0 1.0 37.000000 0 0 
39 1 1 1.0 1.0 38.000000 0 0 
40 1 1 1.0 1.0 39.000000 0 0 
41 1 1 1.0 1.0 40.000000 0 0 
42 1 1 1.0 1.0 41.000000 0 0 
43 1 1 1.0 1.0 42.000000 0 0 
44 1 1 1.0 1.0 43.000000 0 0 
45 1 1 1.0 1.0 44.000000 0 0 
46 1 1 1.0 1.0 45.000000 0 0 
47 1 1 1.0 1.0 46.000000 0 0 
48 1 1 1.0 1.0 47.000000 0 0 
49 1 1 1.0 1.0 48.000000 0 0 
50 1 1 1.0 1.0 49.000000 0 0 
51 1 1 1.0 1.0 50.000000 0 0 
52 1 1 1.0 1.0 51.000000 0 0 
53 1 1 1.0 1.0 52.000000 0 0 
54 1 1 1.0 1.0 53.000000 0 0 
55 1 1 1.0 1.0 54.000000 0 0 
56 1 1 1.0 1.0 55.000000 0 0 
57 1 1 1.0 1.0 56.000000 0 0 
58 1 1 1.0 1.0 57.000000 0 0 
59 1 1 1.0 1.0 58.000000 0 0 
60 1 1 1.0 1.0 59.000000 0 0 
61 1 1 1.0 1.0 60.000000 0 0 
62 1 1 1.0 1.0 61.000000 0 0 
63 1 1 1.0 1.0 62.000000 0 0 
64 1 1 1.0 1.0 63.000000 0 0 
65 1 1 1.0 1.0 64.000000 0 0 
66 1 1 1.0 1.0 65.000000 0 0 
67 1 1 1.0 1.0 66.000000 0 0 
68 1 1 1.0 1.0 67.000000 0 0 
69 1 1 1.0 1.0 68.000000 0 0 
70 1 1 1.0 1.0 69.000000 0 0 
71 1 1 1.0 1.0 70.000000 0 0 
72 1 1 1.0 1.0 71.000000 0 0 
73 1 1 1.0 1.0 72.000000 0 0 
74 1 1 1.0 1.0 73.000000 0 0 
75 1 1 1.0 1.0 74.000000 0 0 
76 1 1 1.0 1.0 75.000000 0 0 
77 1 1 1.0 1.0 76.000000 0 0 
78 1 1 1.0 1.0 77.000000 0 0 
79 1 1 1.0 1.0 78.000000 0 0 
80 1 1 1.0 1.0 79.000000 0 0 
81 1 1 1.0 1.0 80.000000 0 0 
82 1 1 1.0 1.0 81.000000 0 0 
83 1 1 1.0 1.0 82.000000 0 0 
84 1 1 1.0 1.0 83.000000 0 0 
85 1 1 1.0 1.0 84.000000 0 0 
86 1 1 1.0 1.0 85.000000 0 0 
87 1 1 1.0 1.0 86.000000 0 0 
88 1 1 1.0 1.0 87.000000 0 0 
89 1 1 1.0 1.0 88.000000 0 0 
90 1 1 1.0 1.0 89.000000 0 0 
91 1 1 1.0 1.0 90.000000 0 0 
92 1 1 1.0 1.0 91.000000 0 0 
93 1 1 1.0 1.0 92.000000 0 0 
94 1 1 1.0 1.0 93.000000 0 0 
95 1 1 1.0 1.0 94.000000 0 0 
96 1 1 1.0 1.0 95.000000 0 0 
97 1 1 1.0 1.0 96.000000 0 0 
98 1 1 1.0 1.0 97.000000 0 0 
99 1 1 1.0 1.0 98.000000 0 0 
100 1 1 1.0 1.0 99.000000 0 0 
101 1 1 1.0 1.0 100.000000 0 0 

Bonds 

1 1 1 2 
2 1 2 3 
3 1 3 4 
4 1 4 5 
5 1 5 6 
6 1 6 7 
7 1 7 8 
8 1 8 9 
9 1 9 10 
10 1 10 11 
11 1 11 12 
12 1 12 13 
13 1 13 14 
14 1 14 15 
15 1 15 16 
16 1 16 17 
17 1 17 18 
18 1 18 19 
19 1 19 20 
20 1 20 21 
21 1 21 22 
22 1 22 23 
23 1 23 24 
24 1 24 25 
25 1 25 26 
26 1 26 27 
27 1 27 28 
28 1 28 29 
29 1 29 30 
30 1 30 31 
31 1 31 32 
32 1 32 33 
33 1 33 34 
34 1 34 35 
35 1 35 36 
36 1 36 37 
37 1 37 38 
38 1 38 39 
39 1 39 40 
40 1 40 41 
41 1 41 42 
42 1 42 43 
43 1 43 44 
44 1 44 45 
45 1 45 46 
46 1 46 47 
47 1 47 48 
48 1 48 49 
49 1 49 50 
50 1 50 51 
51 1 51 52 
52 1 52 53 
53 1 53 54 
54 1 54 55 
55 1 55 56 
56 1 56 57 
57 1 57 58 
58 1 58 59 
59 1 59 60 
60 1 60 61 
61 1 61 62 
62 1 62 63 
63 1 63 64 
64 1 64 65 
65 1 65 66 
66 1 66 67 
67 1 67 68 
68 1 68 69 
69 1 69 70 
70 1 70 71 
71 1 71 72 
72 1 72 73 
73 1 73 74 
74 1 74 75 
75 1 75 76 
76 1 76 77 
77 1 77 78 
78 1 78 79 
79 1 79 80 
80 1 80 81 
81 1 81 82 
82 1 82 83 
83 1 83 84 
84 1 84 85 
85 1 85 86 
86 1 86 87 
87 1 87 88 
88 1 88 89 
89 1 89 90 
90 1 90 91 
91 1 91 92 
92 1 92 93 
93 1 93 94 
94 1 94 95 
95 1 95 96 
96 1 96 97 
97 1 97 98 
98 1 98 99 
99 1 99 100 
100 1 100 101 

